                              Psi4 1.0.54 Driver

  ==> Input File <==

--------------------------------------------------------------------------
memory 250 mb

molecule {
  O    0.000000000000    0.000000000000   -0.064494967833
  H    0.000000000000   -0.749045999644    0.511790971180
  H   -0.000000000000    0.749045999644    0.511790971180
}

set basis sto-3g
energy('scf')
--------------------------------------------------------------------------

    Molecular point group: c2v

    Geometry (in Angstrom), charge = 0, multiplicity = 1:

       Center              X                  Y                   Z               Mass
    ------------   -----------------  -----------------  -----------------  -----------------
           O          0.000000000000     0.000000000000    -0.064494967833    15.994914619560
           H          0.000000000000    -0.749045999644     0.511790971180     1.007825032070
           H         -0.000000000000     0.749045999644     0.511790971180     1.007825032070

  Charge       = 0
  Multiplicity = 1
  Basis Set: STO-3G
  Basis Set:

    Orbital Energies (a.u.)
    -----------------------

    Doubly Occupied:

       1A1   -20.240435     2A1    -1.274360     1B2    -0.624942
       3A1    -0.453656     1B1    -0.391838

  @DF-RHF Final Energy:   -74.96116423932003

   => Energetics <=

    Nuclear Repulsion Energy =              9.3120938906462651
    One-Electron Energy =                -122.5760367093135841
    Two-Electron Energy =                  38.3027785793472617
    DFT Exchange-Correlation Energy =       0.0000000000000000
    Empirical Dispersion Energy =           0.0000000000000000
    PCM Polarization Energy =               0.0000000000000000
    EFP Energy =                            0.0000000000000000
    Total Energy =                        -74.9611642393200555
*** Psi4 exiting successfully. Buy a developer a beer!
