                              Psi4 1.0.54 Driver

  ==> Input File <==

--------------------------------------------------------------------------
memory 250 mb

molecule {
  O    0.000000000000   -0.000178969871   -0.064716289574
  H    0.000000000000   -0.747625808777    0.512450852116
  H   -0.000000000000    0.750466190511    0.514643626881
}

set basis sto-3g
energy('scf')
--------------------------------------------------------------------------

    Molecular point group: cs

    Geometry (in Angstrom), charge = 0, multiplicity = 1:

       Center              X                  Y                   Z               Mass
    ------------   -----------------  -----------------  -----------------  -----------------
           O          0.000178969871     0.064716289574     0.000000000000    15.994914619560
           H          0.747625808777    -0.512450852116     0.000000000000     1.007825032070
           H         -0.750466190511    -0.514643626881     0.000000000000     1.007825032070

  Charge       = 0
  Multiplicity = 1
  Basis Set: STO-3G
  Basis Set:

    Orbital Energies (a.u.)
    -----------------------

    Doubly Occupied:

       1Ap   -20.240836     2Ap    -1.273960     3Ap    -0.623980
       4Ap    -0.453968     1App   -0.391894

  @DF-RHF Final Energy:   -74.96145908627778

   => Energetics <=

    Nuclear Repulsion Energy =              9.3007020308540440
    One-Electron Energy =                -122.5550464541175018
    Two-Electron Energy =                  38.2928853369856910
    DFT Exchange-Correlation Energy =       0.0000000000000000
    Empirical Dispersion Energy =           0.0000000000000000
    PCM Polarization Energy =               0.0000000000000000
    EFP Energy =                            0.0000000000000000
    Total Energy =                        -74.9614590862777703
*** Psi4 exiting successfully. Buy a developer a beer!
