                               Psi4 1.4a2.dev723

  ==> Input File <==

--------------------------------------------------------------------------
memory 275 mb

molecule {
  O    0.000000000000    0.000000000000   -0.064716289300
  H    0.000000000000   -0.749045996700    0.513547237500
  H    0.000000000000    0.749045996700    0.513547237500
}

set basis sto-3g
gradient('scf')
--------------------------------------------------------------------------

    Molecular point group: c2v
  Charge       = 0
  Multiplicity = 1
  Basis Set: STO-3G
    Blend: STO-3G
  Basis Set: (STO-3G AUX)
    Blend: DEF2-UNIVERSAL-JKFIT

    Orbital Energies [Eh]
    ---------------------

    Doubly Occupied:

       1A1   -20.240506     2A1    -1.273954     1B2    -0.623985
       3A1    -0.453973     1B1    -0.391907

  @DF-RHF Final Energy:   -74.96107392834656

   => Energetics <=

    Nuclear Repulsion Energy =              9.3006650977096648
    One-Electron Energy =                -122.5548262595670792
    Two-Electron Energy =                  38.2930872335108461
    Total Energy =                        -74.9610739283465648

  Dipole Moment: [D]
     X:     0.0000      Y:     0.0000      Z:     1.7388     Total:     1.7388

    Molecular point group: c2v

    Geometry (in Angstrom), charge = 0, multiplicity = 1:

       Center              X                  Y                   Z               Mass
    ------------   -----------------  -----------------  -----------------  -----------------
         O            0.000000000000     0.000000000000    -0.064716289329    15.994914619570
         H            0.000000000000    -0.749045996700     0.513547237471     1.007825032230
         H           -0.000000000000     0.749045996700     0.513547237471     1.007825032230

  Basis Set: STO-3G
    Blend: STO-3G
  Basis Set: (STO-3G AUX)
    Blend: DEF2-UNIVERSAL-JKFIT

  -Total Gradient:
     Atom            X                  Y                   Z
    ------   -----------------  -----------------  -----------------
       1       -0.000000000000     0.000000000000     0.080750165634
       2       -0.000000000000     0.036903031166    -0.040375082817
       3        0.000000000000    -0.036903031166    -0.040375082817

*** Psi4 exiting successfully. Buy a developer a beer!
