                              Psi4 1.0rc90 Driver

  ==> Input File <==

--------------------------------------------------------------------------
memory 250 mb

molecule {
  O    0.000000000000    0.000000000000   -0.071239360116
  H    0.000000000000   -0.759310414209    0.565310171086
  H   -0.000000000000    0.759310414209    0.565310171086
}

set basis sto-3g
energy('scf')
--------------------------------------------------------------------------

    Molecular point group: c2v

    Geometry (in Angstrom), charge = 0, multiplicity = 1:

       Center              X                  Y                   Z               Mass
    ------------   -----------------  -----------------  -----------------  -----------------
           O          0.000000000000     0.000000000000    -0.071239360116    15.994914619560
           H          0.000000000000    -0.759310414209     0.565310171086     1.007825032070
           H         -0.000000000000     0.759310414209     0.565310171086     1.007825032070

  Charge       = 0
  Multiplicity = 1
  Basis Set: STO-3G
  Basis Set:

    Orbital Energies (a.u.)
    -----------------------

    Doubly Occupied:

       1A1   -20.252283     2A1    -1.256861     1B2    -0.593184
       3A1    -0.459488     1B1    -0.392516

  @DF-RHF Final Energy:   -74.96637545007353

   => Energetics <=

    Nuclear Repulsion Energy =              8.8936385207114235
    One-Electron Energy =                -121.8113646413781623
    Two-Electron Energy =                  37.9513506705932144
    DFT Exchange-Correlation Energy =       0.0000000000000000
    Empirical Dispersion Energy =           0.0000000000000000
    PCM Polarization Energy =               0.0000000000000000
    EFP Energy =                            0.0000000000000000
    Total Energy =                        -74.9663754500735280
*** Psi4 exiting successfully. Buy a developer a beer!
