                              Psi4 1.0.54 Driver

  ==> Input File <==

--------------------------------------------------------------------------
memory 250 mb

molecule {
  O    0.000000000000    0.000000000000   -0.064494967833
  H    0.000000000000   -0.747182353012    0.511790971180
  H   -0.000000000000    0.747182353012    0.511790971180
}

set basis sto-3g
energy('scf')
--------------------------------------------------------------------------

    Molecular point group: c2v

    Geometry (in Angstrom), charge = 0, multiplicity = 1:

       Center              X                  Y                   Z               Mass
    ------------   -----------------  -----------------  -----------------  -----------------
           O          0.000000000000     0.000000000000    -0.064494967833    15.994914619560
           H          0.000000000000    -0.747182353012     0.511790971180     1.007825032070
           H         -0.000000000000     0.747182353012     0.511790971180     1.007825032070

  Charge       = 0
  Multiplicity = 1
  Basis Set: STO-3G
  Basis Set:

    Orbital Energies (a.u.)
    -----------------------

    Doubly Occupied:

       1A1   -20.240468     2A1    -1.275322     1B2    -0.625510
       3A1    -0.454171     1B1    -0.392057

  @DF-RHF Final Energy:   -74.96088938003520

   => Energetics <=

    Nuclear Repulsion Energy =              9.3269922843415571
    One-Electron Energy =                -122.6006904218249929
    Two-Electron Energy =                  38.3128087574482308
    DFT Exchange-Correlation Energy =       0.0000000000000000
    Empirical Dispersion Energy =           0.0000000000000000
    PCM Polarization Energy =               0.0000000000000000
    EFP Energy =                            0.0000000000000000
    Total Energy =                        -74.9608893800352121
*** Psi4 exiting successfully. Buy a developer a beer!
