                              Psi4 1.0rc90 Driver

  ==> Input File <==

--------------------------------------------------------------------------
memory 250 mb

molecule {
  O    0.000000000000    0.000000000000   -0.072225220186
  H    0.000000000000   -0.756052211872    0.573133328451
  H   -0.000000000000    0.756052211872    0.573133328451
}

set basis sto-3g
energy('scf')
--------------------------------------------------------------------------

    Molecular point group: c2v

    Geometry (in Angstrom), charge = 0, multiplicity = 1:

       Center              X                  Y                   Z               Mass
    ------------   -----------------  -----------------  -----------------  -----------------
           O          0.000000000000     0.000000000000    -0.072225220186    15.994914619560
           H          0.000000000000    -0.756052211872     0.573133328451     1.007825032070
           H         -0.000000000000     0.756052211872     0.573133328451     1.007825032070

  Charge       = 0
  Multiplicity = 1
  Basis Set: STO-3G
  Basis Set:

    Orbital Energies (a.u.)
    -----------------------

    Doubly Occupied:

       1A1   -20.253877     2A1    -1.256410     1B2    -0.589817
       3A1    -0.461450     1B1    -0.393028

  @DF-RHF Final Energy:   -74.96629930186512

   => Energetics <=

    Nuclear Repulsion Energy =              8.8676166700875356
    One-Electron Energy =                -121.7586681409375302
    Two-Electron Energy =                  37.9247521689848810
    DFT Exchange-Correlation Energy =       0.0000000000000000
    Empirical Dispersion Energy =           0.0000000000000000
    PCM Polarization Energy =               0.0000000000000000
    EFP Energy =                            0.0000000000000000
    Total Energy =                        -74.9662993018651065
*** Psi4 exiting successfully. Buy a developer a beer!
