                              Psi4 1.0rc90 Driver

  ==> Input File <==

--------------------------------------------------------------------------
memory 250 mb

molecule {
  O    0.000000000000    0.000000000000   -0.072446541927
  H    0.000000000000   -0.756052211872    0.574889596769
  H   -0.000000000000    0.756052211872    0.574889596769
}

set basis sto-3g
energy('scf')
--------------------------------------------------------------------------

    Molecular point group: c2v

    Geometry (in Angstrom), charge = 0, multiplicity = 1:

       Center              X                  Y                   Z               Mass
    ------------   -----------------  -----------------  -----------------  -----------------
           O          0.000000000000     0.000000000000    -0.072446541927    15.994914619560
           H          0.000000000000    -0.756052211872     0.574889596769     1.007825032070
           H         -0.000000000000     0.756052211872     0.574889596769     1.007825032070

  Charge       = 0
  Multiplicity = 1
  Basis Set: STO-3G
  Basis Set:

    Orbital Energies (a.u.)
    -----------------------

    Doubly Occupied:

       1A1   -20.254242     2A1    -1.255980     1B2    -0.588879
       3A1    -0.461688     1B1    -0.393080

  @DF-RHF Final Energy:   -74.96625813173235

   => Energetics <=

    Nuclear Repulsion Energy =              8.8566195598318558
    One-Electron Energy =                -121.7380163584444688
    Two-Electron Energy =                  37.9151386668802814
    DFT Exchange-Correlation Energy =       0.0000000000000000
    Empirical Dispersion Energy =           0.0000000000000000
    PCM Polarization Energy =               0.0000000000000000
    EFP Energy =                            0.0000000000000000
    Total Energy =                        -74.9662581317323315
*** Psi4 exiting successfully. Buy a developer a beer!
