                              Psi4 1.0.54 Driver

  ==> Input File <==

--------------------------------------------------------------------------
memory 250 mb

molecule {
  O    0.000000000000    0.000000000000   -0.064937611315
  H    0.000000000000   -0.750909646276    0.515303507817
  H   -0.000000000000    0.750909646276    0.515303507817
}

set basis sto-3g
energy('scf')
--------------------------------------------------------------------------

    Molecular point group: c2v

    Geometry (in Angstrom), charge = 0, multiplicity = 1:

       Center              X                  Y                   Z               Mass
    ------------   -----------------  -----------------  -----------------  -----------------
           O          0.000000000000     0.000000000000    -0.064937611315    15.994914619560
           H          0.000000000000    -0.750909646276     0.515303507817     1.007825032070
           H         -0.000000000000     0.750909646276     0.515303507817     1.007825032070

  Charge       = 0
  Multiplicity = 1
  Basis Set: STO-3G
  Basis Set:

    Orbital Energies (a.u.)
    -----------------------

    Doubly Occupied:

       1A1   -20.241208     2A1    -1.272600     1B2    -0.622457
       3A1    -0.453765     1B1    -0.391734

  @DF-RHF Final Energy:   -74.96201202854155

   => Energetics <=

    Nuclear Repulsion Energy =              9.2744842483336534
    One-Electron Energy =                -122.5094510086827739
    Two-Electron Energy =                  38.2729547318075731
    DFT Exchange-Correlation Energy =       0.0000000000000000
    Empirical Dispersion Energy =           0.0000000000000000
    PCM Polarization Energy =               0.0000000000000000
    EFP Energy =                            0.0000000000000000
    Total Energy =                        -74.9620120285415510
*** Psi4 exiting successfully. Buy a developer a beer!
