                               Psi4 1.4a2.dev723

  ==> Input File <==

--------------------------------------------------------------------------
memory 275 mb

molecule {
  O   -0.000000000000    0.000000000000   -0.070948385739
  H    0.000000000000   -0.761068216913    0.563001183741
  H   -0.000000000000    0.761068216913    0.563001183741
}

set basis sto-3g
gradient('scf')
--------------------------------------------------------------------------

    Molecular point group: c2v
  Charge       = 0
  Multiplicity = 1
  Basis Set: STO-3G
    Blend: STO-3G
  Basis Set: (STO-3G AUX)
    Blend: DEF2-UNIVERSAL-JKFIT

    Orbital Energies [Eh]
    ---------------------

    Doubly Occupied:

       1A1   -20.251489     2A1    -1.256628     1B2    -0.593972
       3A1    -0.458694     1B1    -0.392309

  @DF-RHF Final Energy:   -74.96597967574203

   => Energetics <=

    Nuclear Repulsion Energy =              8.8955799833666571
    One-Electron Energy =                -121.8169343432655438
    Two-Electron Energy =                  37.9553746841568653
    Total Energy =                        -74.9659796757420196

  Dipole Moment: [D]
     X:     0.0000      Y:     0.0000      Z:     1.7051     Total:     1.7051

    Molecular point group: c2v

    Geometry (in Angstrom), charge = 0, multiplicity = 1:

       Center              X                  Y                   Z               Mass
    ------------   -----------------  -----------------  -----------------  -----------------
         O            0.000000000000     0.000000000000    -0.070948385739    15.994914619570
         H            0.000000000000    -0.761068216913     0.563001183741     1.007825032230
         H           -0.000000000000     0.761068216913     0.563001183741     1.007825032230

  Basis Set: STO-3G
    Blend: STO-3G
  Basis Set: (STO-3G AUX)
    Blend: DEF2-UNIVERSAL-JKFIT

  -Total Gradient:
     Atom            X                  Y                   Z
    ------   -----------------  -----------------  -----------------
       1       -0.000000000000     0.000000000000    -0.000193544547
       2        0.000000000000    -0.001914174533     0.000096772273
       3       -0.000000000000     0.001914174533     0.000096772273

*** Psi4 exiting successfully. Buy a developer a beer!
