                              Psi4 1.0rc90 Driver

  ==> Input File <==

--------------------------------------------------------------------------
memory 250 mb

molecule {
  O    0.000000000000    0.000000000000   -0.071167275875
  H    0.000000000000   -0.761038596191    0.564738156476
  H   -0.000000000000    0.761038596191    0.564738156476
}

set basis sto-3g
energy('scf')
--------------------------------------------------------------------------

    Molecular point group: c2v

    Geometry (in Angstrom), charge = 0, multiplicity = 1:

       Center              X                  Y                   Z               Mass
    ------------   -----------------  -----------------  -----------------  -----------------
           O          0.000000000000     0.000000000000    -0.071167275875    15.994914619560
           H          0.000000000000    -0.761038596191     0.564738156476     1.007825032070
           H         -0.000000000000     0.761038596191     0.564738156476     1.007825032070

  Charge       = 0
  Multiplicity = 1
  Basis Set: STO-3G
  Basis Set:

    Orbital Energies (a.u.)
    -----------------------

    Doubly Occupied:

       1A1   -20.252187     2A1    -1.256231     1B2    -0.593051
       3A1    -0.458944     1B1    -0.392351

  @DF-RHF Final Energy:   -74.96636457382010

   => Energetics <=

    Nuclear Repulsion Energy =              8.8849902617009793
    One-Electron Energy =                -121.7971818761735676
    Two-Electron Energy =                  37.9458270406524889
    DFT Exchange-Correlation Energy =       0.0000000000000000
    Empirical Dispersion Energy =           0.0000000000000000
    PCM Polarization Energy =               0.0000000000000000
    EFP Energy =                            0.0000000000000000
    Total Energy =                        -74.9663645738201012
*** Psi4 exiting successfully. Buy a developer a beer!
