                              Psi4 1.0rc90 Driver

  ==> Input File <==

--------------------------------------------------------------------------
memory 250 mb

molecule {
  O    0.000000000000    0.000000000000   -0.071018038375
  H    0.000000000000   -0.757446767577    0.563553902767
  H   -0.000000000000    0.757446767577    0.563553902767
}

set basis sto-3g
energy('scf')
--------------------------------------------------------------------------

    Molecular point group: c2v

    Geometry (in Angstrom), charge = 0, multiplicity = 1:

       Center              X                  Y                   Z               Mass
    ------------   -----------------  -----------------  -----------------  -----------------
           O          0.000000000000     0.000000000000    -0.071018038375    15.994914619560
           H          0.000000000000    -0.757446767577     0.563553902767     1.007825032070
           H         -0.000000000000     0.757446767577     0.563553902767     1.007825032070

  Charge       = 0
  Multiplicity = 1
  Basis Set: STO-3G
  Basis Set:

    Orbital Energies (a.u.)
    -----------------------

    Doubly Occupied:

       1A1   -20.251882     2A1    -1.258112     1B2    -0.594590
       3A1    -0.459736     1B1    -0.392619

  @DF-RHF Final Energy:   -74.96637680027644

   => Energetics <=

    Nuclear Repulsion Energy =              8.9178329330691390
    One-Electron Energy =                -121.8545412387076112
    Two-Electron Energy =                  37.9703315053620329
    DFT Exchange-Correlation Energy =       0.0000000000000000
    Empirical Dispersion Energy =           0.0000000000000000
    PCM Polarization Energy =               0.0000000000000000
    EFP Energy =                            0.0000000000000000
    Total Energy =                        -74.9663768002764357
*** Psi4 exiting successfully. Buy a developer a beer!
