                              Psi4 1.0rc90 Driver

  ==> Input File <==

--------------------------------------------------------------------------
memory 250 mb

molecule {
  O    0.000000000000    0.000000000000   -0.070724632393
  H    0.000000000000   -0.761038596191    0.561225619839
  H   -0.000000000000    0.761038596191    0.561225619839
}

set basis sto-3g
energy('scf')
--------------------------------------------------------------------------

    Molecular point group: c2v

    Geometry (in Angstrom), charge = 0, multiplicity = 1:

       Center              X                  Y                   Z               Mass
    ------------   -----------------  -----------------  -----------------  -----------------
           O          0.000000000000     0.000000000000    -0.070724632393    15.994914619560
           H          0.000000000000    -0.761038596191     0.561225619839     1.007825032070
           H         -0.000000000000     0.761038596191     0.561225619839     1.007825032070

  Charge       = 0
  Multiplicity = 1
  Basis Set: STO-3G
  Basis Set:

    Orbital Energies (a.u.)
    -----------------------

    Doubly Occupied:

       1A1   -20.251432     2A1    -1.257060     1B2    -0.594915
       3A1    -0.458437     1B1    -0.392234

  @DF-RHF Final Energy:   -74.96636601572673

   => Energetics <=

    Nuclear Repulsion Energy =              8.9068373460073218
    One-Electron Energy =                -121.8382514962192005
    Two-Electron Energy =                  37.9650481344851300
    DFT Exchange-Correlation Energy =       0.0000000000000000
    Empirical Dispersion Energy =           0.0000000000000000
    PCM Polarization Energy =               0.0000000000000000
    EFP Energy =                            0.0000000000000000
    Total Energy =                        -74.9663660157267486
*** Psi4 exiting successfully. Buy a developer a beer!
