                              Psi4 1.0.54 Driver

  ==> Input File <==

--------------------------------------------------------------------------
memory 250 mb

molecule {
  O    0.000000000000    0.000000000000   -0.064716289574
  H    0.000000000000   -0.749045999644    0.513547239499
  H   -0.000000000000    0.749045999644    0.513547239499
}

set basis sto-3g
energy('scf')
--------------------------------------------------------------------------

    Molecular point group: c2v

    Geometry (in Angstrom), charge = 0, multiplicity = 1:

       Center              X                  Y                   Z               Mass
    ------------   -----------------  -----------------  -----------------  -----------------
           O          0.000000000000     0.000000000000    -0.064716289574    15.994914619560
           H          0.000000000000    -0.749045999644     0.513547239499     1.007825032070
           H         -0.000000000000     0.749045999644     0.513547239499     1.007825032070

  Charge       = 0
  Multiplicity = 1
  Basis Set: STO-3G
  Basis Set:

    Orbital Energies (a.u.)
    -----------------------

    Doubly Occupied:

       1A1   -20.240835     2A1    -1.273956     1B2    -0.623981
       3A1    -0.453968     1B1    -0.391893

  @DF-RHF Final Energy:   -74.96147063745904

   => Energetics <=

    Nuclear Repulsion Energy =              9.3006650245961389
    One-Electron Energy =                -122.5549889270520367
    Two-Electron Energy =                  38.2928532649968645
    DFT Exchange-Correlation Energy =       0.0000000000000000
    Empirical Dispersion Energy =           0.0000000000000000
    PCM Polarization Energy =               0.0000000000000000
    EFP Energy =                            0.0000000000000000
    Total Energy =                        -74.9614706374590298
*** Psi4 exiting successfully. Buy a developer a beer!
