                               Psi4 1.4a2.dev723

  ==> Input File <==

--------------------------------------------------------------------------
memory 275 mb

molecule {
  O   -0.000000000000    0.000000000000   -0.071240748873
  H    0.000000000000   -0.757488951530    0.565321191290
  H   -0.000000000000    0.757488951530    0.565321191290
}

set basis sto-3g
gradient('scf')
--------------------------------------------------------------------------

    Molecular point group: c2v
  Charge       = 0
  Multiplicity = 1
  Basis Set: STO-3G
    Blend: STO-3G
  Basis Set: (STO-3G AUX)
    Blend: DEF2-UNIVERSAL-JKFIT

    Orbital Energies [Eh]
    ---------------------

    Doubly Occupied:

       1A1   -20.251932     2A1    -1.257668     1B2    -0.593643
       3A1    -0.459985     1B1    -0.392689

  @DF-RHF Final Energy:   -74.96598957309024

   => Energetics <=

    Nuclear Repulsion Energy =              8.9064566010562931
    One-Electron Energy =                -121.8330583279225152
    Two-Electron Energy =                  37.9606121537759762
    Total Energy =                        -74.9659895730902406

  Dipole Moment: [D]
     X:     0.0000      Y:     0.0000      Z:     1.7095     Total:     1.7095

    Molecular point group: c2v

    Geometry (in Angstrom), charge = 0, multiplicity = 1:

       Center              X                  Y                   Z               Mass
    ------------   -----------------  -----------------  -----------------  -----------------
         O            0.000000000000     0.000000000000    -0.071240748873    15.994914619570
         H            0.000000000000    -0.757488951530     0.565321191290     1.007825032230
         H           -0.000000000000     0.757488951530     0.565321191290     1.007825032230

  Basis Set: STO-3G
    Blend: STO-3G
  Basis Set: (STO-3G AUX)
    Blend: DEF2-UNIVERSAL-JKFIT

  -Total Gradient:
     Atom            X                  Y                   Z
    ------   -----------------  -----------------  -----------------
       1       -0.000000000000     0.000000000000    -0.000406140002
       2       -0.000000000000     0.000233078374     0.000203070001
       3        0.000000000000    -0.000233078374     0.000203070001

*** Psi4 exiting successfully. Buy a developer a beer!
