                               Psi4 1.4a2.dev723

  ==> Input File <==

--------------------------------------------------------------------------
memory 275 mb

molecule {
  O   -0.000000000000    0.000000000000   -0.072223307204
  H    0.000000000000   -0.756119764953    0.573118148156
  H   -0.000000000000    0.756119764953    0.573118148156
}

set basis sto-3g
gradient('scf')
--------------------------------------------------------------------------

    Molecular point group: c2v
  Charge       = 0
  Multiplicity = 1
  Basis Set: STO-3G
    Blend: STO-3G
  Basis Set: (STO-3G AUX)
    Blend: DEF2-UNIVERSAL-JKFIT

    Orbital Energies [Eh]
    ---------------------

    Doubly Occupied:

       1A1   -20.253550     2A1    -1.256383     1B2    -0.589816
       3A1    -0.461437     1B1    -0.393041

  @DF-RHF Final Energy:   -74.96590952174188

   => Energetics <=

    Nuclear Repulsion Energy =              8.8672402651351874
    One-Electron Energy =                -121.7578444302161529
    Two-Electron Energy =                  37.9246946433390733
    Total Energy =                        -74.9659095217418781

  Dipole Moment: [D]
     X:     0.0000      Y:     0.0000      Z:     1.7079     Total:     1.7079

    Molecular point group: c2v

    Geometry (in Angstrom), charge = 0, multiplicity = 1:

       Center              X                  Y                   Z               Mass
    ------------   -----------------  -----------------  -----------------  -----------------
         O           -0.000000000000     0.000000000000    -0.072223307204    15.994914619570
         H            0.000000000000    -0.756119764953     0.573118148156     1.007825032230
         H           -0.000000000000     0.756119764953     0.573118148156     1.007825032230

  Basis Set: STO-3G
    Blend: STO-3G
  Basis Set: (STO-3G AUX)
    Blend: DEF2-UNIVERSAL-JKFIT

  -Total Gradient:
     Atom            X                  Y                   Z
    ------   -----------------  -----------------  -----------------
       1       -0.000000000000     0.000000000000    -0.009818508702
       2        0.000000000000    -0.002074601396     0.004909254351
       3       -0.000000000000     0.002074601396     0.004909254351

*** Psi4 exiting successfully. Buy a developer a beer!
