                              Psi4 1.0rc90 Driver

  ==> Input File <==

--------------------------------------------------------------------------
memory 250 mb

molecule {
  O    0.000000000000    0.000000000000   -0.064716289574
  H    0.000000000000   -0.747182353012    0.513547239499
  H   -0.000000000000    0.747182353012    0.513547239499
}

set basis sto-3g
energy('scf')
--------------------------------------------------------------------------

    Molecular point group: c2v

    Geometry (in Angstrom), charge = 0, multiplicity = 1:

       Center              X                  Y                   Z               Mass
    ------------   -----------------  -----------------  -----------------  -----------------
           O          0.000000000000     0.000000000000    -0.064716289574    15.994914619560
           H          0.000000000000    -0.747182353012     0.513547239499     1.007825032070
           H         -0.000000000000     0.747182353012     0.513547239499     1.007825032070

  Charge       = 0
  Multiplicity = 1
  Basis Set: STO-3G
  Basis Set:

    Orbital Energies (a.u.)
    -----------------------

    Doubly Occupied:

       1A1   -20.240866     2A1    -1.274914     1B2    -0.624545
       3A1    -0.454483     1B1    -0.392110

  @DF-RHF Final Energy:   -74.96120372715423

   => Energetics <=

    Nuclear Repulsion Energy =              9.3155097570818288
    One-Electron Energy =                -122.5795939960878798
    Two-Electron Energy =                  38.3028805118518321
    DFT Exchange-Correlation Energy =       0.0000000000000000
    Empirical Dispersion Energy =           0.0000000000000000
    PCM Polarization Energy =               0.0000000000000000
    EFP Energy =                            0.0000000000000000
    Total Energy =                        -74.9612037271542135
*** Psi4 exiting successfully. Buy a developer a beer!
