                              Psi4 1.0rc90 Driver

  ==> Input File <==

--------------------------------------------------------------------------
memory 250 mb

molecule {
  O    0.000000000000    0.000000000000   -0.071239360116
  H    0.000000000000   -0.755583120945    0.565310171086
  H   -0.000000000000    0.755583120945    0.565310171086
}

set basis sto-3g
energy('scf')
--------------------------------------------------------------------------

    Molecular point group: c2v

    Geometry (in Angstrom), charge = 0, multiplicity = 1:

       Center              X                  Y                   Z               Mass
    ------------   -----------------  -----------------  -----------------  -----------------
           O          0.000000000000     0.000000000000    -0.071239360116    15.994914619560
           H          0.000000000000    -0.755583120945     0.565310171086     1.007825032070
           H         -0.000000000000     0.755583120945     0.565310171086     1.007825032070

  Charge       = 0
  Multiplicity = 1
  Basis Set: STO-3G
  Basis Set:

    Orbital Energies (a.u.)
    -----------------------

    Doubly Occupied:

       1A1   -20.252228     2A1    -1.258522     1B2    -0.594118
       3A1    -0.460487     1B1    -0.392834

  @DF-RHF Final Energy:   -74.96637218764033

   => Energetics <=

    Nuclear Repulsion Energy =              8.9200374801798112
    One-Electron Energy =                -121.8564419162390209
    Two-Electron Energy =                  37.9700322484188675
    DFT Exchange-Correlation Energy =       0.0000000000000000
    Empirical Dispersion Energy =           0.0000000000000000
    PCM Polarization Energy =               0.0000000000000000
    EFP Energy =                            0.0000000000000000
    Total Energy =                        -74.9663721876403315
*** Psi4 exiting successfully. Buy a developer a beer!
