                               Psi4 1.4a2.dev723

  ==> Input File <==

--------------------------------------------------------------------------
memory 275 mb

molecule {
  O   -0.000000000000    0.000000000000   -0.071157835160
  H    0.000000000000   -0.758083128457    0.564663240893
  H   -0.000000000000    0.758083128457    0.564663240893
}

set basis sto-3g
gradient('scf')
--------------------------------------------------------------------------

    Molecular point group: c2v
  Charge       = 0
  Multiplicity = 1
  Basis Set: STO-3G
    Blend: STO-3G
  Basis Set: (STO-3G AUX)
    Blend: DEF2-UNIVERSAL-JKFIT

    Orbital Energies [Eh]
    ---------------------

    Doubly Occupied:

       1A1   -20.251801     2A1    -1.257561     1B2    -0.593845
       3A1    -0.459732     1B1    -0.392618

  @DF-RHF Final Energy:   -74.96599012250699

   => Energetics <=

    Nuclear Repulsion Energy =              8.9063670203777043
    One-Electron Energy =                -121.8336009322859326
    Two-Electron Energy =                  37.9612437894012373
    Total Energy =                        -74.9659901225069945

  Dipole Moment: [D]
     X:     0.0000      Y:     0.0000      Z:     1.7089     Total:     1.7089

    Molecular point group: c2v

    Geometry (in Angstrom), charge = 0, multiplicity = 1:

       Center              X                  Y                   Z               Mass
    ------------   -----------------  -----------------  -----------------  -----------------
         O            0.000000000000     0.000000000000    -0.071157835160    15.994914619570
         H            0.000000000000    -0.758083128457     0.564663240893     1.007825032230
         H           -0.000000000000     0.758083128457     0.564663240893     1.007825032230

  Basis Set: STO-3G
    Blend: STO-3G
  Basis Set: (STO-3G AUX)
    Blend: DEF2-UNIVERSAL-JKFIT

  -Total Gradient:
     Atom            X                  Y                   Z
    ------   -----------------  -----------------  -----------------
       1       -0.000000000000     0.000000000000    -0.000002452338
       2       -0.000000000000     0.000001607882     0.000001226169
       3        0.000000000000    -0.000001607882     0.000001226169

*** Psi4 exiting successfully. Buy a developer a beer!
