                              Psi4 1.0rc90 Driver

  ==> Input File <==

--------------------------------------------------------------------------
memory 250 mb

molecule {
  O    0.000000000000    0.000000000000   -0.071239360116
  H    0.000000000000   -0.757446767577    0.565310171086
  H   -0.000000000000    0.757446767577    0.565310171086
}

set basis sto-3g
energy('scf')
--------------------------------------------------------------------------

    Molecular point group: c2v

    Geometry (in Angstrom), charge = 0, multiplicity = 1:

       Center              X                  Y                   Z               Mass
    ------------   -----------------  -----------------  -----------------  -----------------
           O          0.000000000000     0.000000000000    -0.071239360116    15.994914619560
           H          0.000000000000    -0.757446767577     0.565310171086     1.007825032070
           H         -0.000000000000     0.757446767577     0.565310171086     1.007825032070

  Charge       = 0
  Multiplicity = 1
  Basis Set: STO-3G
  Basis Set:

    Orbital Energies (a.u.)
    -----------------------

    Doubly Occupied:

       1A1   -20.252255     2A1    -1.257690     1B2    -0.593652
       3A1    -0.459987     1B1    -0.392674

  @DF-RHF Final Energy:   -74.96637972154241

   => Energetics <=

    Nuclear Repulsion Energy =              8.9068243750696610
    One-Electron Energy =                -121.8338914685666339
    Two-Electron Energy =                  37.9606873719545632
    DFT Exchange-Correlation Energy =       0.0000000000000000
    Empirical Dispersion Energy =           0.0000000000000000
    PCM Polarization Energy =               0.0000000000000000
    EFP Energy =                            0.0000000000000000
    Total Energy =                        -74.9663797215424097
*** Psi4 exiting successfully. Buy a developer a beer!
